
#(C) 2024 by FIZ Karlsruhe - Leibniz Institute for Information Infrastructure.  All rights reserved.
data_173014-ICSD
_database_code_ICSD 173014
_audit_creation_date 2008-02-01
_audit_update_record 2016-02-01
_chemical_name_common 'Aluminium oxide - gamma'
_chemical_formula_structural 'Al2 O3'
_chemical_formula_sum 'Al2 O3'
_exptl_crystal_density_diffrn 5.04
_citation_title 'Fine-scale nanostructure in gamma - Al2 O3'
loop_
_citation_id
_citation_journal_full
_citation_year
_citation_journal_volume
_citation_page_first
_citation_page_last
_citation_journal_id_ASTM
primary 'Chemistry of Materials' 2007 18 3242 3248 CMATEX
loop_
_citation_author_citation_id
_citation_author_name
primary 'Paglia, G.'
primary 'Bozin, E.S.'
primary 'Billinge, S.J.L.'
_cell_length_a 3.4009(6)
_cell_length_b 2.7895(3)
_cell_length_c 7.0762(9)
_cell_angle_alpha 90.
_cell_angle_beta 90.
_cell_angle_gamma 90.
_cell_volume 67.13
_cell_formula_units_Z 2
_space_group_name_H-M_alt 'P 1'
_space_group_IT_number 1
loop_
_space_group_symop_id
_space_group_symop_operation_xyz
1 'x, y, z'
loop_
_atom_type_symbol
_atom_type_oxidation_number
O2- -2
Al3+ 3
loop_
_atom_site_label
_atom_site_type_symbol
_atom_site_symmetry_multiplicity
_atom_site_Wyckoff_symbol
_atom_site_fract_x
_atom_site_fract_y
_atom_site_fract_z
_atom_site_U_iso_or_equiv
_atom_site_occupancy
O1 O2- 1 a 0.7867(2) 0.5598(1) 0.0785(2) 0.0010(1) 1.
O2 O2- 1 a 0.2418(3) 0.9879(2) 0.2493(2) 0.0069(1) 1.
O3 O2- 1 a 0.7791(1) 0.4825(3) 0.3987(3) 0.0069(1) 1.
O4 O2- 1 a 0.2007(6) 0.4656(2) 0.5901(2) 0.0069(1) 1.
O5 O2- 1 a 0.8282(2) 0.9922(1) 0.7515(4) 0.0069(1) 1.
O6 O2- 1 a 0.2756(3) 0.6089(3) 0.9300(3) 0.0069(1) 1.
Al1 Al3+ 1 a 0.2091(4) 0.4855(3) 0.0652(3) 0.0110(2) 1.
Al2 Al3+ 1 a 0.4485(3) 0.9782(1) 0.4620(4) 0.0110(2) 1.
Al3 Al3+ 1 a 0.2802(2) 0.0307(3) 0.7138(2) 0.0110(2) 1.
Al4 Al3+ 1 a 0.5934(3) 0.4773(3) 0.8726(3) 0.0110(2) 1.
#End of TTdata_173014-ICSD