
#(C) 2024 by FIZ Karlsruhe - Leibniz Institute for Information Infrastructure.  All rights reserved.
data_653719-ICSD
_database_code_ICSD 653719
_audit_creation_date 2008-08-01
_audit_update_record 2017-08-01
_chemical_name_common 'Bismuth - II (HP)'
_chemical_formula_structural Bi
_chemical_formula_sum Bi1
_chemical_name_structure_type Bi
_exptl_crystal_density_diffrn 10.97
_citation_title 'The crystal structure of bismuth-II at 26 kbar'
loop_
_citation_id
_citation_journal_full
_citation_year
_citation_journal_volume
_citation_page_first
_citation_page_last
_citation_journal_id_ASTM
primary 'Physics Letters A' 1967 24 714 717 PYLAAG
loop_
_citation_author_citation_id
_citation_author_name
primary 'Brugger, R.M.'
primary 'Bennion, R.B.'
primary 'Worlton, T.G.'
_cell_length_a 6.674
_cell_length_b 6.117
_cell_length_c 3.304
_cell_angle_alpha 90.
_cell_angle_beta 110.33
_cell_angle_gamma 90.
_cell_volume 126.48
_cell_formula_units_Z 4
_space_group_name_H-M_alt 'C 1 2/m 1'
_space_group_IT_number 12
loop_
_space_group_symop_id
_space_group_symop_operation_xyz
1 '-x, y, -z'
2 '-x, -y, -z'
3 'x, -y, z'
4 'x, y, z'
5 '-x+1/2, y+1/2, -z'
6 '-x+1/2, -y+1/2, -z'
7 'x+1/2, -y+1/2, z'
8 'x+1/2, y+1/2, z'
loop_
_atom_type_symbol
_atom_type_oxidation_number
Bi0+ 0
loop_
_atom_site_label
_atom_site_type_symbol
_atom_site_symmetry_multiplicity
_atom_site_Wyckoff_symbol
_atom_site_fract_x
_atom_site_fract_y
_atom_site_fract_z
_atom_site_B_iso_or_equiv
_atom_site_occupancy
Bi1 Bi0+ 4 i 0.25 0 0.125 . 1
#End of TTdata_653719-ICSD