
#(C) 2024 by FIZ Karlsruhe - Leibniz Institute for Information Infrastructure.  All rights reserved.
data_620418-ICSD
_database_code_ICSD 620418
_audit_creation_date 2010-02-01
_audit_update_record 2019-08-01
_chemical_name_common 'Cadmium selenide'
_chemical_formula_structural 'Cd Se'
_chemical_formula_sum 'Cd1 Se1'
_chemical_name_structure_type Wurtzite#ZnS(2H)
_exptl_crystal_density_diffrn 5.64
_citation_title 'The system (Cd3As2)1-x-(2 CdSe)x'
_publ_section_comment 'Cell and Type only determined'
loop_
_citation_id
_citation_journal_full
_citation_year
_citation_journal_volume
_citation_page_first
_citation_page_last
_citation_journal_id_ASTM
primary 'Inorganic Materials' 1973 9 1354 1356 INOMAF
loop_
_citation_author_citation_id
_citation_author_name
primary 'Golovei, M.I.'
primary 'Rigan, M.Yu.'
primary 'Olekseyuk, I.D.'
primary 'Voroshilov, Yu.V.'
_cell_length_a 4.3
_cell_length_b 4.3
_cell_length_c 7.033
_cell_angle_alpha 90.
_cell_angle_beta 90.
_cell_angle_gamma 120.
_cell_volume 112.62
_cell_formula_units_Z 2
_space_group_name_H-M_alt 'P 63 m c'
_space_group_IT_number 186
loop_
_space_group_symop_id
_space_group_symop_operation_xyz
1 '-x, -x+y, z+1/2'
2 'x-y, -y, z+1/2'
3 'y, x, z+1/2'
4 'x-y, x, z+1/2'
5 'y, -x+y, z+1/2'
6 '-x, -y, z+1/2'
7 'x, x-y, z'
8 '-x+y, y, z'
9 '-y, -x, z'
10 '-x+y, -x, z'
11 '-y, x-y, z'
12 'x, y, z'
loop_
_atom_type_symbol
_atom_type_oxidation_number
Cd2+ 2
Se2- -2
loop_
_atom_site_label
_atom_site_type_symbol
_atom_site_symmetry_multiplicity
_atom_site_Wyckoff_symbol
_atom_site_fract_x
_atom_site_fract_y
_atom_site_fract_z
_atom_site_B_iso_or_equiv
_atom_site_occupancy
Cd1 Cd2+ 2 b 0.3333 0.6667 0 . 1.
Se1 Se2- 2 b 0.3333 0.6667 0.376 . 1.
#End of TTdata_620418-ICSD